 Entering Gaussian System, Link 0=g16
 Input=f.gjf
 Output=f.out
 Initial command:
 /home/jy/gaussian//g16/l1.exe "/home/jy/tmp/Gau-9774.inp" -scrdir="/home/jy/tmp/"
 Entering Link 1 = /home/jy/gaussian//g16/l1.exe PID=      9776.
  
 Copyright (c) 1988,1990,1992,1993,1995,1998,2003,2009,2016,
            Gaussian, Inc.  All Rights Reserved.
  
 This is part of the Gaussian(R) 16 program.  It is based on
 the Gaussian(R) 09 system (copyright 2009, Gaussian, Inc.),
 the Gaussian(R) 03 system (copyright 2003, Gaussian, Inc.),
 the Gaussian(R) 98 system (copyright 1998, Gaussian, Inc.),
 the Gaussian(R) 94 system (copyright 1995, Gaussian, Inc.),
 the Gaussian 92(TM) system (copyright 1992, Gaussian, Inc.),
 the Gaussian 90(TM) system (copyright 1990, Gaussian, Inc.),
 the Gaussian 88(TM) system (copyright 1988, Gaussian, Inc.),
 the Gaussian 86(TM) system (copyright 1986, Carnegie Mellon
 University), and the Gaussian 82(TM) system (copyright 1983,
 Carnegie Mellon University). Gaussian is a federally registered
 trademark of Gaussian, Inc.
  
 This software contains proprietary and confidential information,
 including trade secrets, belonging to Gaussian, Inc.
  
 This software is provided under written license and may be
 used, copied, transmitted, or stored only in accord with that
 written license.
  
 The following legend is applicable only to US Government
 contracts under FAR:
  
                    RESTRICTED RIGHTS LEGEND
  
 Use, reproduction and disclosure by the US Government is
 subject to restrictions as set forth in subparagraphs (a)
 and (c) of the Commercial Computer Software - Restricted
 Rights clause in FAR 52.227-19.
  
 Gaussian, Inc.
 340 Quinnipiac St., Bldg. 40, Wallingford CT 06492
  
  
 ---------------------------------------------------------------
 Warning -- This program may not be used in any manner that
 competes with the business of Gaussian, Inc. or will provide
 assistance to any competitor of Gaussian, Inc.  The licensee
 of this program is prohibited from giving any competitor of
 Gaussian, Inc. access to this program.  By using this program,
 the user acknowledges that Gaussian, Inc. is engaged in the
 business of creating and licensing software in the field of
 computational chemistry and represents and warrants to the
 licensee that it is not a competitor of Gaussian, Inc. and that
 it will not use this program in any manner prohibited above.
 ---------------------------------------------------------------
  

 Cite this work as:
 Gaussian 16, Revision A.03,
 M. J. Frisch, G. W. Trucks, H. B. Schlegel, G. E. Scuseria, 
 M. A. Robb, J. R. Cheeseman, G. Scalmani, V. Barone, 
 G. A. Petersson, H. Nakatsuji, X. Li, M. Caricato, A. V. Marenich, 
 J. Bloino, B. G. Janesko, R. Gomperts, B. Mennucci, H. P. Hratchian, 
 J. V. Ortiz, A. F. Izmaylov, J. L. Sonnenberg, D. Williams-Young, 
 F. Ding, F. Lipparini, F. Egidi, J. Goings, B. Peng, A. Petrone, 
 T. Henderson, D. Ranasinghe, V. G. Zakrzewski, J. Gao, N. Rega, 
 G. Zheng, W. Liang, M. Hada, M. Ehara, K. Toyota, R. Fukuda, 
 J. Hasegawa, M. Ishida, T. Nakajima, Y. Honda, O. Kitao, H. Nakai, 
 T. Vreven, K. Throssell, J. A. Montgomery, Jr., J. E. Peralta, 
 F. Ogliaro, M. J. Bearpark, J. J. Heyd, E. N. Brothers, K. N. Kudin, 
 V. N. Staroverov, T. A. Keith, R. Kobayashi, J. Normand, 
 K. Raghavachari, A. P. Rendell, J. C. Burant, S. S. Iyengar, 
 J. Tomasi, M. Cossi, J. M. Millam, M. Klene, C. Adamo, R. Cammi, 
 J. W. Ochterski, R. L. Martin, K. Morokuma, O. Farkas, 
 J. B. Foresman, and D. J. Fox, Gaussian, Inc., Wallingford CT, 2016.
 
 ******************************************
 Gaussian 16:  ES64L-G16RevA.03 25-Dec-2016
                19-May-2022 
 ******************************************
 %nprocshared=3
 Will use up to    3 processors via shared memory.
 %mem=5GB
 ----------------------------------------------------------------------
 # wb97xd/6-31g(d,p) scrf=pcm geom=connectivity iop(3/107=0325000000,3/
 108=0325000000)
 ----------------------------------------------------------------------
 1/38=1,57=2,172=1/1;
 2/12=2,17=6,18=5,40=1/2;
 3/5=1,6=6,7=101,11=2,25=1,30=1,70=2201,74=-58,107=325000000,108=325000000/1,2,3;
 4//1;
 5/5=2,38=5/2;
 6/7=2,8=2,9=2,10=2,28=1/1;
 99/5=1,9=1/99;
 -------------------
 Title Card Required
 -------------------
 Symbolic Z-matrix:
 Charge = -1 Multiplicity = 2
 C                     0.75231   1.18056   0. 
 H                     1.10897   0.17175   0. 
 H                     1.10899   1.68495   0.87365 
 H                     1.10899   1.68495  -0.87365 
 H                    -0.31769   1.18057   0. 
 
                          Input orientation:                          
 ---------------------------------------------------------------------
 Center     Atomic      Atomic             Coordinates (Angstroms)
 Number     Number       Type             X           Y           Z
 ---------------------------------------------------------------------
      1          6           0        0.752315    1.180556    0.000000
      2          1           0        1.108969    0.171746    0.000000
      3          1           0        1.108988    1.684954    0.873652
      4          1           0        1.108988    1.684954   -0.873652
      5          1           0       -0.317685    1.180569    0.000000
 ---------------------------------------------------------------------
                    Distance matrix (angstroms):
                    1          2          3          4          5
     1  C    0.000000
     2  H    1.070000   0.000000
     3  H    1.070000   1.747302   0.000000
     4  H    1.070000   1.747302   1.747303   0.000000
     5  H    1.070000   1.747303   1.747303   1.747303   0.000000
 Stoichiometry    CH4(1-,2)
 Framework group  T[O(C),4C3(H)]
 Deg. of freedom     1
 Full point group                 T       NOp  12
 Largest Abelian subgroup         D2      NOp   4
 Largest concise Abelian subgroup D2      NOp   4
                         Standard orientation:                         
 ---------------------------------------------------------------------
 Center     Atomic      Atomic             Coordinates (Angstroms)
 Number     Number       Type             X           Y           Z
 ---------------------------------------------------------------------
      1          6           0        0.000000   -0.000000    0.000000
      2          1           0        0.617765    0.617765    0.617765
      3          1           0       -0.617765   -0.617765    0.617765
      4          1           0       -0.617765    0.617765   -0.617765
      5          1           0        0.617765   -0.617765   -0.617765
 ---------------------------------------------------------------------
 Rotational constants (GHZ):         164.2463808         164.2463808         164.2463808
 Standard basis: 6-31G(d,p) (6D, 7F)
 There are    11 symmetry adapted cartesian basis functions of A   symmetry.
 There are     8 symmetry adapted cartesian basis functions of B1  symmetry.
 There are     8 symmetry adapted cartesian basis functions of B2  symmetry.
 There are     8 symmetry adapted cartesian basis functions of B3  symmetry.
 There are    11 symmetry adapted basis functions of A   symmetry.
 There are     8 symmetry adapted basis functions of B1  symmetry.
 There are     8 symmetry adapted basis functions of B2  symmetry.
 There are     8 symmetry adapted basis functions of B3  symmetry.
    35 basis functions,    56 primitive gaussians,    35 cartesian basis functions
     6 alpha electrons        5 beta electrons
       nuclear repulsion energy        13.6865186503 Hartrees.
 NAtoms=    5 NActive=    5 NUniq=    2 SFac= 4.00D+00 NAtFMM=   60 NAOKFM=F Big=F
 Integral buffers will be    131072 words long.
 Raffenetti 2 integral format.
 Two-electron integral symmetry is turned on.
 Nuclear repulsion after empirical dispersion term =       13.6861601569 Hartrees.
 ------------------------------------------------------------------------------
 Polarizable Continuum Model (PCM)
 =================================
 Model                : PCM.
 Atomic radii         : UFF (Universal Force Field).
 Polarization charges : Total charges.
 Charge compensation  : None.
 Solution method      : On-the-fly selection.
 Cavity type          : Scaled VdW (van der Waals Surface) (Alpha=1.100).
 Cavity algorithm     : GePol (No added spheres)
                        Default sphere list used, NSphG=    5.
                        Lebedev-Laikov grids with approx.  5.0 points / Ang**2.
                        Smoothing algorithm: York/Karplus (Gamma=1.0000).
                        Polarization charges: spherical gaussians, with
                                              point-specific exponents (IZeta= 3).
                        Self-potential: point-specific (ISelfS= 7).
                        Self-field    : sphere-specific E.n sum rule (ISelfD= 2).
 Solvent              : Water, Eps=  78.355300 Eps(inf)=   1.777849
 ------------------------------------------------------------------------------
 Spheres list:
 ISph  on   Nord     Re0    Alpha      Xe            Ye            Ze
    1   C      1    1.9255  1.100      0.000000     -0.000000      0.000000
    2   H      2    1.4430  1.100      0.617765      0.617765      0.617765
    3   H      3    1.4430  1.100     -0.617765     -0.617765      0.617765
    4   H      4    1.4430  1.100     -0.617765      0.617765     -0.617765
    5   H      5    1.4430  1.100      0.617765     -0.617765     -0.617765
 ------------------------------------------------------------------------------
 One-electron integrals computed using PRISM.
 NBasis=    35 RedAO= T EigKep=  1.66D-02  NBF=    11     8     8     8
 NBsUse=    35 1.00D-06 EigRej= -1.00D+00 NBFU=    11     8     8     8
 ExpMin= 1.61D-01 ExpMax= 3.05D+03 ExpMxC= 4.57D+02 IAcc=3 IRadAn=         5 AccDes= 0.00D+00
 Harris functional with IExCor= 4639 and IRadAn=       5 diagonalized for initial guess.
 HarFok:  IExCor= 4639 AccDes= 0.00D+00 IRadAn=         5 IDoV= 1 UseB2=F ITyADJ=14
 ICtDFT=  3500011 ScaDFX=  1.000000  1.000000  1.000000  1.000000
 FoFCou: FMM=F IPFlag=           0 FMFlag=      100000 FMFlg1=           0
         NFxFlg=           0 DoJE=T BraDBF=F KetDBF=T FulRan=T
         wScrn=  0.000000 ICntrl=       500 IOpCl=  0 I1Cent=   200000004 NGrid=           0
         NMat0=    1 NMatS0=      1 NMatT0=    0 NMatD0=    1 NMtDS0=    0 NMtDT0=    0
 Petite list used in FoFCou.
 Initial guess orbital symmetries:
 Alpha Orbitals:
       Occupied  (A) (A) (T) (T) (T) (A)
       Virtual   (T) (T) (T) (T) (T) (T) (T) (T) (T) (A) (A) (E)
                 (E) (T) (T) (T) (T) (T) (T) (T) (T) (T) (E) (E)
                 (A) (T) (T) (T) (A)
 Beta  Orbitals:
       Occupied  (A) (A) (T) (T) (T)
       Virtual   (A) (T) (T) (T) (T) (T) (T) (T) (T) (T) (A) (A)
                 (E) (E) (T) (T) (T) (T) (T) (T) (T) (T) (T) (E)
                 (E) (A) (T) (T) (T) (A)
 The electronic state of the initial guess is 2-A.
 Initial guess <Sx>= 0.0000 <Sy>= 0.0000 <Sz>= 0.5000 <S**2>= 0.7500 S= 0.5000
 Keep R1 and R2 ints in memory in symmetry-blocked form, NReq=2988434.
 Requested convergence on RMS density matrix=1.00D-08 within 128 cycles.
 Requested convergence on MAX density matrix=1.00D-06.
 Requested convergence on             energy=1.00D-06.
 No special actions if energy rises.
 Inv3:  Mode=1 IEnd=      696972.
 Iteration    1 A*A^-1 deviation from unit magnitude is 2.66D-15 for    270.
 Iteration    1 A*A^-1 deviation from orthogonality  is 2.28D-15 for    401    168.
 Iteration    1 A^-1*A deviation from unit magnitude is 2.66D-15 for    197.
 Iteration    1 A^-1*A deviation from orthogonality  is 2.11D-15 for    444    183.
 Error on total polarization charges =  0.02790
 SCF Done:  E(UwB97XD) =  -40.3992746163     A.U. after   10 cycles
            NFock= 10  Conv=0.13D-08     -V/T= 1.9908
 <Sx>= 0.0000 <Sy>= 0.0000 <Sz>= 0.5000 <S**2>= 0.7503 S= 0.5002
 <L.S>=  0.00000000000    
 Annihilation of the first spin contaminant:
 S**2 before annihilation     0.7503,   after     0.7500

 **********************************************************************

            Population analysis using the SCF density.

 **********************************************************************

 Orbital symmetries:
 Alpha Orbitals:
       Occupied  (A) (A) (T) (T) (T) (A)
       Virtual   (T) (T) (T) (T) (T) (T) (T) (T) (T) (A) (A) (E)
                 (E) (T) (T) (T) (T) (T) (T) (T) (T) (T) (E) (E)
                 (A) (T) (T) (T) (A)
 Beta  Orbitals:
       Occupied  (A) (A) (T) (T) (T)
       Virtual   (A) (T) (T) (T) (T) (T) (T) (T) (T) (T) (A) (A)
                 (E) (E) (T) (T) (T) (T) (T) (T) (T) (T) (T) (E)
                 (E) (A) (T) (T) (T) (A)
 The electronic state is 2-A.
 Alpha  occ. eigenvalues --  -10.24311  -0.80320  -0.46555  -0.46555  -0.46555
 Alpha  occ. eigenvalues --    0.01301
 Alpha virt. eigenvalues --    0.28825   0.28825   0.28825   0.66234   0.66234
 Alpha virt. eigenvalues --    0.66234   1.05371   1.05371   1.05371   1.12486
 Alpha virt. eigenvalues --    1.25552   1.53748   1.53748   2.24572   2.24572
 Alpha virt. eigenvalues --    2.24572   2.26756   2.26756   2.26756   2.85010
 Alpha virt. eigenvalues --    2.85010   2.85010   3.15183   3.15183   3.38448
 Alpha virt. eigenvalues --    3.66155   3.66155   3.66155   4.61786
  Beta  occ. eigenvalues --  -10.23197  -0.78547  -0.45583  -0.45583  -0.45583
  Beta virt. eigenvalues --    0.22599   0.30146   0.30146   0.30146   0.66914
  Beta virt. eigenvalues --    0.66914   0.66914   1.05723   1.05723   1.05723
  Beta virt. eigenvalues --    1.13793   1.25951   1.54376   1.54376   2.25071
  Beta virt. eigenvalues --    2.25071   2.25071   2.27565   2.27565   2.27565
  Beta virt. eigenvalues --    2.85670   2.85670   2.85670   3.16205   3.16205
  Beta virt. eigenvalues --    3.39567   3.67257   3.67257   3.67257   4.63248
          Condensed to atoms (all electrons):
               1          2          3          4          5
     1  C   12.730409  -1.692097  -1.692097  -1.692097  -1.692097
     2  H   -1.692097   1.726545   0.408349   0.408349   0.408349
     3  H   -1.692097   0.408349   1.726545   0.408349   0.408349
     4  H   -1.692097   0.408349   0.408349   1.726545   0.408349
     5  H   -1.692097   0.408349   0.408349   0.408349   1.726545
          Atomic-Atomic Spin Densities.
               1          2          3          4          5
     1  C    8.144785  -2.098922  -2.098922  -2.098922  -2.098922
     2  H   -2.098922   1.087996   0.441217   0.441217   0.441217
     3  H   -2.098922   0.441217   1.087996   0.441217   0.441217
     4  H   -2.098922   0.441217   0.441217   1.087996   0.441217
     5  H   -2.098922   0.441217   0.441217   0.441217   1.087996
 Mulliken charges and spin densities:
               1          2
     1  C    0.037978  -0.250903
     2  H   -0.259495   0.312726
     3  H   -0.259495   0.312726
     4  H   -0.259495   0.312726
     5  H   -0.259495   0.312726
 Sum of Mulliken charges =  -1.00000   1.00000
 Mulliken charges and spin densities with hydrogens summed into heavy atoms:
               1          2
     1  C   -1.000000   1.000000
 Electronic spatial extent (au):  <R**2>=             49.7129
 Charge=             -1.0000 electrons
 Dipole moment (field-independent basis, Debye):
    X=              0.0000    Y=             -0.0000    Z=             -0.0000  Tot=              0.0000
 Quadrupole moment (field-independent basis, Debye-Ang):
   XX=            -14.9563   YY=            -14.9563   ZZ=            -14.9563
   XY=             -0.0000   XZ=             -0.0000   YZ=              0.0000
 Traceless Quadrupole moment (field-independent basis, Debye-Ang):
   XX=             -0.0000   YY=              0.0000   ZZ=             -0.0000
   XY=             -0.0000   XZ=             -0.0000   YZ=              0.0000
 Octapole moment (field-independent basis, Debye-Ang**2):
  XXX=              0.0000  YYY=             -0.0000  ZZZ=             -0.0000  XYY=              0.0000
  XXY=             -0.0000  XXZ=             -0.0000  XZZ=              0.0000  YZZ=             -0.0000
  YYZ=             -0.0000  XYZ=             -2.3929
 Hexadecapole moment (field-independent basis, Debye-Ang**3):
 XXXX=            -34.4333 YYYY=            -34.4333 ZZZZ=            -34.4333 XXXY=             -0.0000
 XXXZ=              0.0000 YYYX=             -0.0000 YYYZ=             -0.0000 ZZZX=              0.0000
 ZZZY=             -0.0000 XXYY=            -12.3397 XXZZ=            -12.3397 YYZZ=            -12.3397
 XXYZ=              0.0000 YYXZ=             -0.0000 ZZXY=             -0.0000
 N-N= 1.368616015691D+01 E-N=-1.236198159489D+02  KE= 4.077451858571D+01
 Symmetry A    KE= 3.520456895001D+01
 Symmetry B1   KE= 1.856649878567D+00
 Symmetry B2   KE= 1.856649878567D+00
 Symmetry B3   KE= 1.856649878567D+00
 Symmetry A    SP= 1.000000000000D+00
 Symmetry B1   SP= 1.014381774455D-15
 Symmetry B2   SP= 1.178583097599D-15
 Symmetry B3   SP= 1.582813480584D-15
                          Isotropic Fermi Contact Couplings
        Atom                 a.u.       MegaHertz       Gauss      10(-4) cm-1
     1  C(13)              1.35034    1518.04466     541.67608     506.36519
     2  H(1)              -0.00113      -5.03281      -1.79583      -1.67876
     3  H(1)              -0.00113      -5.03281      -1.79583      -1.67876
     4  H(1)              -0.00113      -5.03281      -1.79583      -1.67876
     5  H(1)              -0.00113      -5.03281      -1.79583      -1.67876
 --------------------------------------------------------
       Center         ----  Spin Dipole Couplings  ----
                      3XX-RR        3YY-RR        3ZZ-RR
 --------------------------------------------------------
     1   Atom       -0.000000      0.000000     -0.000000
     2   Atom        0.000000     -0.000000     -0.000000
     3   Atom        0.000000     -0.000000      0.000000
     4   Atom        0.000000     -0.000000     -0.000000
     5   Atom        0.000000     -0.000000      0.000000
 --------------------------------------------------------
                        XY            XZ            YZ
 --------------------------------------------------------
     1   Atom        0.000000     -0.000000      0.000000
     2   Atom        0.029793      0.029793      0.029793
     3   Atom        0.029793     -0.029793     -0.029793
     4   Atom       -0.029793      0.029793     -0.029793
     5   Atom       -0.029793     -0.029793      0.029793
 --------------------------------------------------------


 ---------------------------------------------------------------------------------
              Anisotropic Spin Dipole Couplings in Principal Axis System
 ---------------------------------------------------------------------------------

       Atom             a.u.   MegaHertz   Gauss  10(-4) cm-1        Axes

              Baa    -0.0000    -0.000    -0.000    -0.000  0.6348 -0.5379  0.5547
     1 C(13)  Bbb     0.0000     0.000     0.000     0.000 -0.4291  0.3517  0.8320
              Bcc     0.0000     0.000     0.000     0.000  0.6426  0.7661  0.0076
 
              Baa    -0.0298   -15.896    -5.672    -5.302 -0.6118 -0.1624  0.7742
     2 H(1)   Bbb    -0.0298   -15.896    -5.672    -5.302 -0.5407  0.8002 -0.2595
              Bcc     0.0596    31.792    11.344    10.605  0.5774  0.5774  0.5774
 
              Baa    -0.0298   -15.896    -5.672    -5.302 -0.4999  0.8090  0.3092
     3 H(1)   Bbb    -0.0298   -15.896    -5.672    -5.302  0.6456  0.1101  0.7557
              Bcc     0.0596    31.792    11.344    10.605  0.5774  0.5774 -0.5774
 
              Baa    -0.0298   -15.896    -5.672    -5.302  0.7908  0.2193 -0.5715
     4 H(1)   Bbb    -0.0298   -15.896    -5.672    -5.302  0.2034  0.7865  0.5832
              Bcc     0.0596    31.792    11.344    10.605  0.5774 -0.5774  0.5774
 
              Baa    -0.0298   -15.896    -5.672    -5.302  0.3793  0.8158 -0.4365
     5 H(1)   Bbb    -0.0298   -15.896    -5.672    -5.302  0.7231  0.0331  0.6900
              Bcc     0.0596    31.792    11.344    10.605  0.5774 -0.5774 -0.5774
 

 ---------------------------------------------------------------------------------


 Test job not archived.
 1\1\GINC-DESKTOP-49I5OO0\SP\UwB97XD\6-31G(d,p)\C1H4(1-,2)\JY\19-May-20
 22\0\\# wb97xd/6-31g(d,p) scrf=pcm geom=connectivity iop(3/107=0325000
 000,3/108=0325000000)\\Title Card Required\\-1,2\C,0,0.7523148,1.18055
 554,0.\H,0,1.10896922,0.17174554,0.\H,0,1.10898764,1.68495373,0.873651
 5\H,0,1.10898764,1.68495373,-0.8736515\H,0,-0.3176852,1.18056872,0.\\V
 ersion=ES64L-G16RevA.03\State=2-A\HF=-40.3992746\S2=0.750334\S2-1=0.\S
 2A=0.75\RMSD=1.338e-09\Dipole=0.,0.,0.\Quadrupole=0.,0.,0.,0.,0.,0.\PG
 =T [O(C1),4C3(H1)]\\@


 One man practicing sportsmanship is far better than 50 preaching it.
 -- Knute K. Rockne
 Job cpu time:       0 days  0 hours  0 minutes  4.6 seconds.
 Elapsed time:       0 days  0 hours  0 minutes  2.1 seconds.
 File lengths (MBytes):  RWF=     11 Int=      0 D2E=      0 Chk=      1 Scr=      1
 Normal termination of Gaussian 16 at Thu May 19 11:33:22 2022.
